HEADER
"PSFversion" "1.00"
"design" "(\"lab4\" \"testbench\" \"schematic\" \"\")"
"simulator" "spectre"
"temperature" "27"
"host" ""
"date" "Nov 20 21:07:05 2019"
"title" ""
"analysisList" "()"
END
