HEADER
"PSFversion" "1.00"
"Time Stamp" "Oct 11 00:38:48 2019"
TYPE
"variable" STRUCT(
"value" FLOAT DOUBLE
) PROP( "key" "element" )
VALUE
"v1" "variable" ( 600e-3 ) PROP( )
"v2" "variable" ( 1.8 ) PROP( )
"temp" "variable" ( 27 ) PROP( )
END
