HEADER
"PSFversion" "1.00"
"design" "(\"Lab1\" \"nmos_tb\" \"config\" \"\")"
"simulator" "spectre"
"temperature" "27"
"host" ""
"date" "Oct 11 00:38:51 2019"
"title" ""
"analysisList" "()"
END
