HEADER
"PSFversion" "1.00"
"simulator" "spectre"
"version" "11.1.0.366.isr7"
"date" "12:38:51 AM, Fri Oct 11, 2019"
"design" "// Generated for: spectre"
"analysis type" "info.subckts"
"analysis name" "subckts"
"analysis description" "Circuit Information"
"xVecSorted" "unsorted"
"tolerance.relative" 0.00100000
TYPE
"subckt" STRUCT(
"subckt_params" STRING *
"subckt_terminals" STRING *
) PROP(
"key" "sub"
)
VALUE
"pch_mis" "subckt" (
""
""
)
"nmos_extracted" "subckt" (
""
"B D G S"
)
"nmos" "subckt" (
""
"B D G S"
)
"nch_mis" "subckt" (
""
""
)
END
