HEADER
"PSFversion" "1.00"
"Bv" "B"
"Dv" "D"
"Gv" "G"
"Sv" "S"
