HEADER
"PSFversion" "1.00"
"V0v" "V0"
"V0n" "analogLib_vdc_spectre"
"V1v" "V1"
"V1n" "analogLib_vdc_spectre"
"V2v" "V2"
"V2n" "analogLib_vdc_spectre"
"v1v" "v1"
"v1n" "analogLib_vdc_spectre"
"v2v" "v2"
"v2n" "analogLib_vdc_spectre"
"v3v" "v3"
"v3n" "analogLib_vdc_spectre"
"I5v" "I5"
"I5n" "nmos"
"I1v" "I1"
"I1n" "nmos_extracted"
