HEADER
"PSFversion" "1.00"
"net3v" "net3"
"net5v" "net5"
"net019v" "net019"
"net1v" "net1"
"net017v" "net017"
"net015v" "net015"
"0v" "gnd!"
