HEADER
"PSFversion" "1.00"
"design" "(\"lab4\" \"full_adder\" \"schematic\" \"\")"
"simulator" "spectre"
"temperature" "27"
"host" ""
"date" "Nov 29 05:02:14 2019"
"title" ""
"analysisList" "()"
END
