HEADER
"PSFversion" "1.00"
"design" "(\"Lab1\" \"nmos\" \"schematic\" \"\")"
"simulator" "spectre"
"temperature" "27"
"host" ""
"date" "Oct 10 23:04:30 2019"
"title" ""
"analysisList" "()"
END
