HEADER
"PSFversion" "1.00"
"Time Stamp" "Oct 10 23:04:30 2019"
TYPE
"variable" STRUCT(
"value" FLOAT DOUBLE
) PROP( "key" "element" )
VALUE
"v1" "variable" ( 1.8 ) PROP( )
"v2" "variable" ( 1 ) PROP( )
"temp" "variable" ( 27 ) PROP( )
END
