HEADER
"PSFversion" "1.00"
"Time Stamp" "Nov 29 05:02:14 2019"
TYPE
"variable" STRUCT(
"value" FLOAT DOUBLE
) PROP( "key" "element" )
VALUE
"temp" "variable" ( 27 ) PROP( )
END
