HEADER
"PSFversion" "1.00"
"net5v" "net5"
"net8v" "net8"
"net3v" "net3"
"gnd!v" "0"
